+ 0 /NodeList/0/DeviceList/0/$ns3::PointToPointNetDevice/TxQueue/Enqueue ns3::PppHeader (Point-to-Point Protocol: IP (0x0021)) ns3::Ipv4Header (tos 0x0 DSCP Default ECN Not-ECT ttl 64 id 0 protocol 17 offset (bytes) 0 flags [none] length: 1052 10.0.1.1 > 10.0.3.2) ns3::UdpHeader (length: 1032 49153 > 4000) Payload (size=1024)
- 0 /NodeList/0/DeviceList/0/$ns3::PointToPointNetDevice/TxQueue/Dequeue ns3::PppHeader (Point-to-Point Protocol: IP (0x0021)) ns3::Ipv4Header (tos 0x0 DSCP Default ECN Not-ECT ttl 64 id 0 protocol 17 offset (bytes) 0 flags [none] length: 1052 10.0.1.1 > 10.0.3.2) ns3::UdpHeader (length: 1032 49153 > 4000) Payload (size=1024)
r 0.08632 /NodeList/1/DeviceList/0/$ns3::PointToPointNetDevice/MacRx ns3::PppHeader (Point-to-Point Protocol: IP (0x0021)) ns3::Ipv4Header (tos 0x0 DSCP Default ECN Not-ECT ttl 64 id 0 protocol 17 offset (bytes) 0 flags [none] length: 1052 10.0.1.1 > 10.0.3.2) ns3::UdpHeader (length: 1032 49153 > 4000) Payload (size=1024)
+ 0.08632 /NodeList/1/DeviceList/1/$ns3::PointToPointNetDevice/TxQueue/Enqueue ns3::PppHeader (Point-to-Point Protocol: IP (0x0021)) ns3::Ipv4Header (tos 0x0 DSCP Default ECN Not-ECT ttl 63 id 0 protocol 17 offset (bytes) 0 flags [none] length: 1052 10.0.1.1 > 10.0.3.2) ns3::UdpHeader (length: 1032 49153 > 4000) Payload (size=1024)
- 0.08632 /NodeList/1/DeviceList/1/$ns3::PointToPointNetDevice/TxQueue/Dequeue ns3::PppHeader (Point-to-Point Protocol: IP (0x0021)) ns3::Ipv4Header (tos 0x0 DSCP Default ECN Not-ECT ttl 63 id 0 protocol 17 offset (bytes) 0 flags [none] length: 1052 10.0.1.1 > 10.0.3.2) ns3::UdpHeader (length: 1032 49153 > 4000) Payload (size=1024)
+ 0.187 /NodeList/0/DeviceList/0/$ns3::PointToPointNetDevice/TxQueue/Enqueue ns3::PppHeader (Point-to-Point Protocol: IP (0x0021)) ns3::Ipv4Header (tos 0x0 DSCP Default ECN Not-ECT ttl 64 id 1 protocol 17 offset (bytes) 0 flags [none] length: 1052 10.0.1.1 > 10.0.3.2) ns3::UdpHeader (length: 1032 49153 > 4000) Payload (size=1024)
- 0.187 /NodeList/0/DeviceList/0/$ns3::PointToPointNetDevice/TxQueue/Dequeue ns3::PppHeader (Point-to-Point Protocol: IP (0x0021)) ns3::Ipv4Header (tos 0x0 DSCP Default ECN Not-ECT ttl 64 id 1 protocol 17 offset (bytes) 0 flags [none] length: 1052 10.0.1.1 > 10.0.3.2) ns3::UdpHeader (length: 1032 49153 > 4000) Payload (size=1024)
r 0.19372 /NodeList/2/DeviceList/0/$ns3::PointToPointNetDevice/MacRx ns3::PppHeader (Point-to-Point Protocol: IP (0x0021)) ns3::Ipv4Header (tos 0x0 DSCP Default ECN Not-ECT ttl 63 id 0 protocol 17 offset (bytes) 0 flags [none] length: 1052 10.0.1.1 > 10.0.3.2) ns3::UdpHeader (length: 1032 49153 > 4000) Payload (size=1024)
+ 0.19372 /NodeList/2/DeviceList/1/$ns3::PointToPointNetDevice/TxQueue/Enqueue ns3::PppHeader (Point-to-Point Protocol: IP (0x0021)) ns3::Ipv4Header (tos 0x0 DSCP Default ECN Not-ECT ttl 62 id 0 protocol 17 offset (bytes) 0 flags [none] length: 1052 10.0.1.1 > 10.0.3.2) ns3::UdpHeader (length: 1032 49153 > 4000) Payload (size=1024)
- 0.19372 /NodeList/2/DeviceList/1/$ns3::PointToPointNetDevice/TxQueue/Dequeue ns3::PppHeader (Point-to-Point Protocol: IP (0x0021)) ns3::Ipv4Header (tos 0x0 DSCP Default ECN Not-ECT ttl 62 id 0 protocol 17 offset (bytes) 0 flags [none] length: 1052 10.0.1.1 > 10.0.3.2) ns3::UdpHeader (length: 1032 49153 > 4000) Payload (size=1024)
r 0.27332 /NodeList/1/DeviceList/0/$ns3::PointToPointNetDevice/MacRx ns3::PppHeader (Point-to-Point Protocol: IP (0x0021)) ns3::Ipv4Header (tos 0x0 DSCP Default ECN Not-ECT ttl 64 id 1 protocol 17 offset (bytes) 0 flags [none] length: 1052 10.0.1.1 > 10.0.3.2) ns3::UdpHeader (length: 1032 49153 > 4000) Payload (size=1024)
+ 0.27332 /NodeList/1/DeviceList/1/$ns3::PointToPointNetDevice/TxQueue/Enqueue ns3::PppHeader (Point-to-Point Protocol: IP (0x0021)) ns3::Ipv4Header (tos 0x0 DSCP Default ECN Not-ECT ttl 63 id 1 protocol 17 offset (bytes) 0 flags [none] length: 1052 10.0.1.1 > 10.0.3.2) ns3::UdpHeader (length: 1032 49153 > 4000) Payload (size=1024)
- 0.27332 /NodeList/1/DeviceList/1/$ns3::PointToPointNetDevice/TxQueue/Dequeue ns3::PppHeader (Point-to-Point Protocol: IP (0x0021)) ns3::Ipv4Header (tos 0x0 DSCP Default ECN Not-ECT ttl 63 id 1 protocol 17 offset (bytes) 0 flags [none] length: 1052 10.0.1.1 > 10.0.3.2) ns3::UdpHeader (length: 1032 49153 > 4000) Payload (size=1024)
r 0.28004 /NodeList/3/DeviceList/0/$ns3::PointToPointNetDevice/MacRx ns3::PppHeader (Point-to-Point Protocol: IP (0x0021)) ns3::Ipv4Header (tos 0x0 DSCP Default ECN Not-ECT ttl 62 id 0 protocol 17 offset (bytes) 0 flags [none] length: 1052 10.0.1.1 > 10.0.3.2) ns3::UdpHeader (length: 1032 49153 > 4000) Payload (size=1024)
+ 0.374 /NodeList/0/DeviceList/0/$ns3::PointToPointNetDevice/TxQueue/Enqueue ns3::PppHeader (Point-to-Point Protocol: IP (0x0021)) ns3::Ipv4Header (tos 0x0 DSCP Default ECN Not-ECT ttl 64 id 2 protocol 17 offset (bytes) 0 flags [none] length: 1052 10.0.1.1 > 10.0.3.2) ns3::UdpHeader (length: 1032 49153 > 4000) Payload (size=1024)
- 0.374 /NodeList/0/DeviceList/0/$ns3::PointToPointNetDevice/TxQueue/Dequeue ns3::PppHeader (Point-to-Point Protocol: IP (0x0021)) ns3::Ipv4Header (tos 0x0 DSCP Default ECN Not-ECT ttl 64 id 2 protocol 17 offset (bytes) 0 flags [none] length: 1052 10.0.1.1 > 10.0.3.2) ns3::UdpHeader (length: 1032 49153 > 4000) Payload (size=1024)
r 0.38072 /NodeList/2/DeviceList/0/$ns3::PointToPointNetDevice/MacRx ns3::PppHeader (Point-to-Point Protocol: IP (0x0021)) ns3::Ipv4Header (tos 0x0 DSCP Default ECN Not-ECT ttl 63 id 1 protocol 17 offset (bytes) 0 flags [none] length: 1052 10.0.1.1 > 10.0.3.2) ns3::UdpHeader (length: 1032 49153 > 4000) Payload (size=1024)
+ 0.38072 /NodeList/2/DeviceList/1/$ns3::PointToPointNetDevice/TxQueue/Enqueue ns3::PppHeader (Point-to-Point Protocol: IP (0x0021)) ns3::Ipv4Header (tos 0x0 DSCP Default ECN Not-ECT ttl 62 id 1 protocol 17 offset (bytes) 0 flags [none] length: 1052 10.0.1.1 > 10.0.3.2) ns3::UdpHeader (length: 1032 49153 > 4000) Payload (size=1024)
- 0.38072 /NodeList/2/DeviceList/1/$ns3::PointToPointNetDevice/TxQueue/Dequeue ns3::PppHeader (Point-to-Point Protocol: IP (0x0021)) ns3::Ipv4Header (tos 0x0 DSCP Default ECN Not-ECT ttl 62 id 1 protocol 17 offset (bytes) 0 flags [none] length: 1052 10.0.1.1 > 10.0.3.2) ns3::UdpHeader (length: 1032 49153 > 4000) Payload (size=1024)
r 0.46032 /NodeList/1/DeviceList/0/$ns3::PointToPointNetDevice/MacRx ns3::PppHeader (Point-to-Point Protocol: IP (0x0021)) ns3::Ipv4Header (tos 0x0 DSCP Default ECN Not-ECT ttl 64 id 2 protocol 17 offset (bytes) 0 flags [none] length: 1052 10.0.1.1 > 10.0.3.2) ns3::UdpHeader (length: 1032 49153 > 4000) Payload (size=1024)
+ 0.46032 /NodeList/1/DeviceList/1/$ns3::PointToPointNetDevice/TxQueue/Enqueue ns3::PppHeader (Point-to-Point Protocol: IP (0x0021)) ns3::Ipv4Header (tos 0x0 DSCP Default ECN Not-ECT ttl 63 id 2 protocol 17 offset (bytes) 0 flags [none] length: 1052 10.0.1.1 > 10.0.3.2) ns3::UdpHeader (length: 1032 49153 > 4000) Payload (size=1024)
- 0.46032 /NodeList/1/DeviceList/1/$ns3::PointToPointNetDevice/TxQueue/Dequeue ns3::PppHeader (Point-to-Point Protocol: IP (0x0021)) ns3::Ipv4Header (tos 0x0 DSCP Default ECN Not-ECT ttl 63 id 2 protocol 17 offset (bytes) 0 flags [none] length: 1052 10.0.1.1 > 10.0.3.2) ns3::UdpHeader (length: 1032 49153 > 4000) Payload (size=1024)
r 0.46704 /NodeList/3/DeviceList/0/$ns3::PointToPointNetDevice/MacRx ns3::PppHeader (Point-to-Point Protocol: IP (0x0021)) ns3::Ipv4Header (tos 0x0 DSCP Default ECN Not-ECT ttl 62 id 1 protocol 17 offset (bytes) 0 flags [none] length: 1052 10.0.1.1 > 10.0.3.2) ns3::UdpHeader (length: 1032 49153 > 4000) Payload (size=1024)
+ 0.561 /NodeList/0/DeviceList/0/$ns3::PointToPointNetDevice/TxQueue/Enqueue ns3::PppHeader (Point-to-Point Protocol: IP (0x0021)) ns3::Ipv4Header (tos 0x0 DSCP Default ECN Not-ECT ttl 64 id 3 protocol 17 offset (bytes) 0 flags [none] length: 1052 10.0.1.1 > 10.0.3.2) ns3::UdpHeader (length: 1032 49153 > 4000) Payload (size=1024)
- 0.561 /NodeList/0/DeviceList/0/$ns3::PointToPointNetDevice/TxQueue/Dequeue ns3::PppHeader (Point-to-Point Protocol: IP (0x0021)) ns3::Ipv4Header (tos 0x0 DSCP Default ECN Not-ECT ttl 64 id 3 protocol 17 offset (bytes) 0 flags [none] length: 1052 10.0.1.1 > 10.0.3.2) ns3::UdpHeader (length: 1032 49153 > 4000) Payload (size=1024)
r 0.56772 /NodeList/2/DeviceList/0/$ns3::PointToPointNetDevice/MacRx ns3::PppHeader (Point-to-Point Protocol: IP (0x0021)) ns3::Ipv4Header (tos 0x0 DSCP Default ECN Not-ECT ttl 63 id 2 protocol 17 offset (bytes) 0 flags [none] length: 1052 10.0.1.1 > 10.0.3.2) ns3::UdpHeader (length: 1032 49153 > 4000) Payload (size=1024)
+ 0.56772 /NodeList/2/DeviceList/1/$ns3::PointToPointNetDevice/TxQueue/Enqueue ns3::PppHeader (Point-to-Point Protocol: IP (0x0021)) ns3::Ipv4Header (tos 0x0 DSCP Default ECN Not-ECT ttl 62 id 2 protocol 17 offset (bytes) 0 flags [none] length: 1052 10.0.1.1 > 10.0.3.2) ns3::UdpHeader (length: 1032 49153 > 4000) Payload (size=1024)
- 0.56772 /NodeList/2/DeviceList/1/$ns3::PointToPointNetDevice/TxQueue/Dequeue ns3::PppHeader (Point-to-Point Protocol: IP (0x0021)) ns3::Ipv4Header (tos 0x0 DSCP Default ECN Not-ECT ttl 62 id 2 protocol 17 offset (bytes) 0 flags [none] length: 1052 10.0.1.1 > 10.0.3.2) ns3::UdpHeader (length: 1032 49153 > 4000) Payload (size=1024)
r 0.64732 /NodeList/1/DeviceList/0/$ns3::PointToPointNetDevice/MacRx ns3::PppHeader (Point-to-Point Protocol: IP (0x0021)) ns3::Ipv4Header (tos 0x0 DSCP Default ECN Not-ECT ttl 64 id 3 protocol 17 offset (bytes) 0 flags [none] length: 1052 10.0.1.1 > 10.0.3.2) ns3::UdpHeader (length: 1032 49153 > 4000) Payload (size=1024)
+ 0.64732 /NodeList/1/DeviceList/1/$ns3::PointToPointNetDevice/TxQueue/Enqueue ns3::PppHeader (Point-to-Point Protocol: IP (0x0021)) ns3::Ipv4Header (tos 0x0 DSCP Default ECN Not-ECT ttl 63 id 3 protocol 17 offset (bytes) 0 flags [none] length: 1052 10.0.1.1 > 10.0.3.2) ns3::UdpHeader (length: 1032 49153 > 4000) Payload (size=1024)
- 0.64732 /NodeList/1/DeviceList/1/$ns3::PointToPointNetDevice/TxQueue/Dequeue ns3::PppHeader (Point-to-Point Protocol: IP (0x0021)) ns3::Ipv4Header (tos 0x0 DSCP Default ECN Not-ECT ttl 63 id 3 protocol 17 offset (bytes) 0 flags [none] length: 1052 10.0.1.1 > 10.0.3.2) ns3::UdpHeader (length: 1032 49153 > 4000) Payload (size=1024)
r 0.65404 /NodeList/3/DeviceList/0/$ns3::PointToPointNetDevice/MacRx ns3::PppHeader (Point-to-Point Protocol: IP (0x0021)) ns3::Ipv4Header (tos 0x0 DSCP Default ECN Not-ECT ttl 62 id 2 protocol 17 offset (bytes) 0 flags [none] length: 1052 10.0.1.1 > 10.0.3.2) ns3::UdpHeader (length: 1032 49153 > 4000) Payload (size=1024)
+ 0.748 /NodeList/0/DeviceList/0/$ns3::PointToPointNetDevice/TxQueue/Enqueue ns3::PppHeader (Point-to-Point Protocol: IP (0x0021)) ns3::Ipv4Header (tos 0x0 DSCP Default ECN Not-ECT ttl 64 id 4 protocol 17 offset (bytes) 0 flags [none] length: 1052 10.0.1.1 > 10.0.3.2) ns3::UdpHeader (length: 1032 49153 > 4000) Payload (size=1024)
- 0.748 /NodeList/0/DeviceList/0/$ns3::PointToPointNetDevice/TxQueue/Dequeue ns3::PppHeader (Point-to-Point Protocol: IP (0x0021)) ns3::Ipv4Header (tos 0x0 DSCP Default ECN Not-ECT ttl 64 id 4 protocol 17 offset (bytes) 0 flags [none] length: 1052 10.0.1.1 > 10.0.3.2) ns3::UdpHeader (length: 1032 49153 > 4000) Payload (size=1024)
r 0.75472 /NodeList/2/DeviceList/0/$ns3::PointToPointNetDevice/MacRx ns3::PppHeader (Point-to-Point Protocol: IP (0x0021)) ns3::Ipv4Header (tos 0x0 DSCP Default ECN Not-ECT ttl 63 id 3 protocol 17 offset (bytes) 0 flags [none] length: 1052 10.0.1.1 > 10.0.3.2) ns3::UdpHeader (length: 1032 49153 > 4000) Payload (size=1024)
+ 0.75472 /NodeList/2/DeviceList/1/$ns3::PointToPointNetDevice/TxQueue/Enqueue ns3::PppHeader (Point-to-Point Protocol: IP (0x0021)) ns3::Ipv4Header (tos 0x0 DSCP Default ECN Not-ECT ttl 62 id 3 protocol 17 offset (bytes) 0 flags [none] length: 1052 10.0.1.1 > 10.0.3.2) ns3::UdpHeader (length: 1032 49153 > 4000) Payload (size=1024)
- 0.75472 /NodeList/2/DeviceList/1/$ns3::PointToPointNetDevice/TxQueue/Dequeue ns3::PppHeader (Point-to-Point Protocol: IP (0x0021)) ns3::Ipv4Header (tos 0x0 DSCP Default ECN Not-ECT ttl 62 id 3 protocol 17 offset (bytes) 0 flags [none] length: 1052 10.0.1.1 > 10.0.3.2) ns3::UdpHeader (length: 1032 49153 > 4000) Payload (size=1024)
r 0.83432 /NodeList/1/DeviceList/0/$ns3::PointToPointNetDevice/MacRx ns3::PppHeader (Point-to-Point Protocol: IP (0x0021)) ns3::Ipv4Header (tos 0x0 DSCP Default ECN Not-ECT ttl 64 id 4 protocol 17 offset (bytes) 0 flags [none] length: 1052 10.0.1.1 > 10.0.3.2) ns3::UdpHeader (length: 1032 49153 > 4000) Payload (size=1024)
+ 0.83432 /NodeList/1/DeviceList/1/$ns3::PointToPointNetDevice/TxQueue/Enqueue ns3::PppHeader (Point-to-Point Protocol: IP (0x0021)) ns3::Ipv4Header (tos 0x0 DSCP Default ECN Not-ECT ttl 63 id 4 protocol 17 offset (bytes) 0 flags [none] length: 1052 10.0.1.1 > 10.0.3.2) ns3::UdpHeader (length: 1032 49153 > 4000) Payload (size=1024)
- 0.83432 /NodeList/1/DeviceList/1/$ns3::PointToPointNetDevice/TxQueue/Dequeue ns3::PppHeader (Point-to-Point Protocol: IP (0x0021)) ns3::Ipv4Header (tos 0x0 DSCP Default ECN Not-ECT ttl 63 id 4 protocol 17 offset (bytes) 0 flags [none] length: 1052 10.0.1.1 > 10.0.3.2) ns3::UdpHeader (length: 1032 49153 > 4000) Payload (size=1024)
r 0.84104 /NodeList/3/DeviceList/0/$ns3::PointToPointNetDevice/MacRx ns3::PppHeader (Point-to-Point Protocol: IP (0x0021)) ns3::Ipv4Header (tos 0x0 DSCP Default ECN Not-ECT ttl 62 id 3 protocol 17 offset (bytes) 0 flags [none] length: 1052 10.0.1.1 > 10.0.3.2) ns3::UdpHeader (length: 1032 49153 > 4000) Payload (size=1024)
+ 0.935 /NodeList/0/DeviceList/0/$ns3::PointToPointNetDevice/TxQueue/Enqueue ns3::PppHeader (Point-to-Point Protocol: IP (0x0021)) ns3::Ipv4Header (tos 0x0 DSCP Default ECN Not-ECT ttl 64 id 5 protocol 17 offset (bytes) 0 flags [none] length: 1052 10.0.1.1 > 10.0.3.2) ns3::UdpHeader (length: 1032 49153 > 4000) Payload (size=1024)
- 0.935 /NodeList/0/DeviceList/0/$ns3::PointToPointNetDevice/TxQueue/Dequeue ns3::PppHeader (Point-to-Point Protocol: IP (0x0021)) ns3::Ipv4Header (tos 0x0 DSCP Default ECN Not-ECT ttl 64 id 5 protocol 17 offset (bytes) 0 flags [none] length: 1052 10.0.1.1 > 10.0.3.2) ns3::UdpHeader (length: 1032 49153 > 4000) Payload (size=1024)
r 0.94172 /NodeList/2/DeviceList/0/$ns3::PointToPointNetDevice/MacRx ns3::PppHeader (Point-to-Point Protocol: IP (0x0021)) ns3::Ipv4Header (tos 0x0 DSCP Default ECN Not-ECT ttl 63 id 4 protocol 17 offset (bytes) 0 flags [none] length: 1052 10.0.1.1 > 10.0.3.2) ns3::UdpHeader (length: 1032 49153 > 4000) Payload (size=1024)
+ 0.94172 /NodeList/2/DeviceList/1/$ns3::PointToPointNetDevice/TxQueue/Enqueue ns3::PppHeader (Point-to-Point Protocol: IP (0x0021)) ns3::Ipv4Header (tos 0x0 DSCP Default ECN Not-ECT ttl 62 id 4 protocol 17 offset (bytes) 0 flags [none] length: 1052 10.0.1.1 > 10.0.3.2) ns3::UdpHeader (length: 1032 49153 > 4000) Payload (size=1024)
- 0.94172 /NodeList/2/DeviceList/1/$ns3::PointToPointNetDevice/TxQueue/Dequeue ns3::PppHeader (Point-to-Point Protocol: IP (0x0021)) ns3::Ipv4Header (tos 0x0 DSCP Default ECN Not-ECT ttl 62 id 4 protocol 17 offset (bytes) 0 flags [none] length: 1052 10.0.1.1 > 10.0.3.2) ns3::UdpHeader (length: 1032 49153 > 4000) Payload (size=1024)
r 1.02132 /NodeList/1/DeviceList/0/$ns3::PointToPointNetDevice/MacRx ns3::PppHeader (Point-to-Point Protocol: IP (0x0021)) ns3::Ipv4Header (tos 0x0 DSCP Default ECN Not-ECT ttl 64 id 5 protocol 17 offset (bytes) 0 flags [none] length: 1052 10.0.1.1 > 10.0.3.2) ns3::UdpHeader (length: 1032 49153 > 4000) Payload (size=1024)
+ 1.02132 /NodeList/1/DeviceList/1/$ns3::PointToPointNetDevice/TxQueue/Enqueue ns3::PppHeader (Point-to-Point Protocol: IP (0x0021)) ns3::Ipv4Header (tos 0x0 DSCP Default ECN Not-ECT ttl 63 id 5 protocol 17 offset (bytes) 0 flags [none] length: 1052 10.0.1.1 > 10.0.3.2) ns3::UdpHeader (length: 1032 49153 > 4000) Payload (size=1024)
- 1.02132 /NodeList/1/DeviceList/1/$ns3::PointToPointNetDevice/TxQueue/Dequeue ns3::PppHeader (Point-to-Point Protocol: IP (0x0021)) ns3::Ipv4Header (tos 0x0 DSCP Default ECN Not-ECT ttl 63 id 5 protocol 17 offset (bytes) 0 flags [none] length: 1052 10.0.1.1 > 10.0.3.2) ns3::UdpHeader (length: 1032 49153 > 4000) Payload (size=1024)
r 1.02804 /NodeList/3/DeviceList/0/$ns3::PointToPointNetDevice/MacRx ns3::PppHeader (Point-to-Point Protocol: IP (0x0021)) ns3::Ipv4Header (tos 0x0 DSCP Default ECN Not-ECT ttl 62 id 4 protocol 17 offset (bytes) 0 flags [none] length: 1052 10.0.1.1 > 10.0.3.2) ns3::UdpHeader (length: 1032 49153 > 4000) Payload (size=1024)
+ 1.122 /NodeList/0/DeviceList/0/$ns3::PointToPointNetDevice/TxQueue/Enqueue ns3::PppHeader (Point-to-Point Protocol: IP (0x0021)) ns3::Ipv4Header (tos 0x0 DSCP Default ECN Not-ECT ttl 64 id 6 protocol 17 offset (bytes) 0 flags [none] length: 1052 10.0.1.1 > 10.0.3.2) ns3::UdpHeader (length: 1032 49153 > 4000) Payload (size=1024)
- 1.122 /NodeList/0/DeviceList/0/$ns3::PointToPointNetDevice/TxQueue/Dequeue ns3::PppHeader (Point-to-Point Protocol: IP (0x0021)) ns3::Ipv4Header (tos 0x0 DSCP Default ECN Not-ECT ttl 64 id 6 protocol 17 offset (bytes) 0 flags [none] length: 1052 10.0.1.1 > 10.0.3.2) ns3::UdpHeader (length: 1032 49153 > 4000) Payload (size=1024)
r 1.12872 /NodeList/2/DeviceList/0/$ns3::PointToPointNetDevice/MacRx ns3::PppHeader (Point-to-Point Protocol: IP (0x0021)) ns3::Ipv4Header (tos 0x0 DSCP Default ECN Not-ECT ttl 63 id 5 protocol 17 offset (bytes) 0 flags [none] length: 1052 10.0.1.1 > 10.0.3.2) ns3::UdpHeader (length: 1032 49153 > 4000) Payload (size=1024)
+ 1.12872 /NodeList/2/DeviceList/1/$ns3::PointToPointNetDevice/TxQueue/Enqueue ns3::PppHeader (Point-to-Point Protocol: IP (0x0021)) ns3::Ipv4Header (tos 0x0 DSCP Default ECN Not-ECT ttl 62 id 5 protocol 17 offset (bytes) 0 flags [none] length: 1052 10.0.1.1 > 10.0.3.2) ns3::UdpHeader (length: 1032 49153 > 4000) Payload (size=1024)
- 1.12872 /NodeList/2/DeviceList/1/$ns3::PointToPointNetDevice/TxQueue/Dequeue ns3::PppHeader (Point-to-Point Protocol: IP (0x0021)) ns3::Ipv4Header (tos 0x0 DSCP Default ECN Not-ECT ttl 62 id 5 protocol 17 offset (bytes) 0 flags [none] length: 1052 10.0.1.1 > 10.0.3.2) ns3::UdpHeader (length: 1032 49153 > 4000) Payload (size=1024)
r 1.20832 /NodeList/1/DeviceList/0/$ns3::PointToPointNetDevice/MacRx ns3::PppHeader (Point-to-Point Protocol: IP (0x0021)) ns3::Ipv4Header (tos 0x0 DSCP Default ECN Not-ECT ttl 64 id 6 protocol 17 offset (bytes) 0 flags [none] length: 1052 10.0.1.1 > 10.0.3.2) ns3::UdpHeader (length: 1032 49153 > 4000) Payload (size=1024)
+ 1.20832 /NodeList/1/DeviceList/1/$ns3::PointToPointNetDevice/TxQueue/Enqueue ns3::PppHeader (Point-to-Point Protocol: IP (0x0021)) ns3::Ipv4Header (tos 0x0 DSCP Default ECN Not-ECT ttl 63 id 6 protocol 17 offset (bytes) 0 flags [none] length: 1052 10.0.1.1 > 10.0.3.2) ns3::UdpHeader (length: 1032 49153 > 4000) Payload (size=1024)
- 1.20832 /NodeList/1/DeviceList/1/$ns3::PointToPointNetDevice/TxQueue/Dequeue ns3::PppHeader (Point-to-Point Protocol: IP (0x0021)) ns3::Ipv4Header (tos 0x0 DSCP Default ECN Not-ECT ttl 63 id 6 protocol 17 offset (bytes) 0 flags [none] length: 1052 10.0.1.1 > 10.0.3.2) ns3::UdpHeader (length: 1032 49153 > 4000) Payload (size=1024)
r 1.21504 /NodeList/3/DeviceList/0/$ns3::PointToPointNetDevice/MacRx ns3::PppHeader (Point-to-Point Protocol: IP (0x0021)) ns3::Ipv4Header (tos 0x0 DSCP Default ECN Not-ECT ttl 62 id 5 protocol 17 offset (bytes) 0 flags [none] length: 1052 10.0.1.1 > 10.0.3.2) ns3::UdpHeader (length: 1032 49153 > 4000) Payload (size=1024)
+ 1.309 /NodeList/0/DeviceList/0/$ns3::PointToPointNetDevice/TxQueue/Enqueue ns3::PppHeader (Point-to-Point Protocol: IP (0x0021)) ns3::Ipv4Header (tos 0x0 DSCP Default ECN Not-ECT ttl 64 id 7 protocol 17 offset (bytes) 0 flags [none] length: 1052 10.0.1.1 > 10.0.3.2) ns3::UdpHeader (length: 1032 49153 > 4000) Payload (size=1024)
- 1.309 /NodeList/0/DeviceList/0/$ns3::PointToPointNetDevice/TxQueue/Dequeue ns3::PppHeader (Point-to-Point Protocol: IP (0x0021)) ns3::Ipv4Header (tos 0x0 DSCP Default ECN Not-ECT ttl 64 id 7 protocol 17 offset (bytes) 0 flags [none] length: 1052 10.0.1.1 > 10.0.3.2) ns3::UdpHeader (length: 1032 49153 > 4000) Payload (size=1024)
r 1.31572 /NodeList/2/DeviceList/0/$ns3::PointToPointNetDevice/MacRx ns3::PppHeader (Point-to-Point Protocol: IP (0x0021)) ns3::Ipv4Header (tos 0x0 DSCP Default ECN Not-ECT ttl 63 id 6 protocol 17 offset (bytes) 0 flags [none] length: 1052 10.0.1.1 > 10.0.3.2) ns3::UdpHeader (length: 1032 49153 > 4000) Payload (size=1024)
+ 1.31572 /NodeList/2/DeviceList/1/$ns3::PointToPointNetDevice/TxQueue/Enqueue ns3::PppHeader (Point-to-Point Protocol: IP (0x0021)) ns3::Ipv4Header (tos 0x0 DSCP Default ECN Not-ECT ttl 62 id 6 protocol 17 offset (bytes) 0 flags [none] length: 1052 10.0.1.1 > 10.0.3.2) ns3::UdpHeader (length: 1032 49153 > 4000) Payload (size=1024)
- 1.31572 /NodeList/2/DeviceList/1/$ns3::PointToPointNetDevice/TxQueue/Dequeue ns3::PppHeader (Point-to-Point Protocol: IP (0x0021)) ns3::Ipv4Header (tos 0x0 DSCP Default ECN Not-ECT ttl 62 id 6 protocol 17 offset (bytes) 0 flags [none] length: 1052 10.0.1.1 > 10.0.3.2) ns3::UdpHeader (length: 1032 49153 > 4000) Payload (size=1024)
r 1.39532 /NodeList/1/DeviceList/0/$ns3::PointToPointNetDevice/MacRx ns3::PppHeader (Point-to-Point Protocol: IP (0x0021)) ns3::Ipv4Header (tos 0x0 DSCP Default ECN Not-ECT ttl 64 id 7 protocol 17 offset (bytes) 0 flags [none] length: 1052 10.0.1.1 > 10.0.3.2) ns3::UdpHeader (length: 1032 49153 > 4000) Payload (size=1024)
+ 1.39532 /NodeList/1/DeviceList/1/$ns3::PointToPointNetDevice/TxQueue/Enqueue ns3::PppHeader (Point-to-Point Protocol: IP (0x0021)) ns3::Ipv4Header (tos 0x0 DSCP Default ECN Not-ECT ttl 63 id 7 protocol 17 offset (bytes) 0 flags [none] length: 1052 10.0.1.1 > 10.0.3.2) ns3::UdpHeader (length: 1032 49153 > 4000) Payload (size=1024)
- 1.39532 /NodeList/1/DeviceList/1/$ns3::PointToPointNetDevice/TxQueue/Dequeue ns3::PppHeader (Point-to-Point Protocol: IP (0x0021)) ns3::Ipv4Header (tos 0x0 DSCP Default ECN Not-ECT ttl 63 id 7 protocol 17 offset (bytes) 0 flags [none] length: 1052 10.0.1.1 > 10.0.3.2) ns3::UdpHeader (length: 1032 49153 > 4000) Payload (size=1024)
r 1.40204 /NodeList/3/DeviceList/0/$ns3::PointToPointNetDevice/MacRx ns3::PppHeader (Point-to-Point Protocol: IP (0x0021)) ns3::Ipv4Header (tos 0x0 DSCP Default ECN Not-ECT ttl 62 id 6 protocol 17 offset (bytes) 0 flags [none] length: 1052 10.0.1.1 > 10.0.3.2) ns3::UdpHeader (length: 1032 49153 > 4000) Payload (size=1024)
+ 1.496 /NodeList/0/DeviceList/0/$ns3::PointToPointNetDevice/TxQueue/Enqueue ns3::PppHeader (Point-to-Point Protocol: IP (0x0021)) ns3::Ipv4Header (tos 0x0 DSCP Default ECN Not-ECT ttl 64 id 8 protocol 17 offset (bytes) 0 flags [none] length: 1052 10.0.1.1 > 10.0.3.2) ns3::UdpHeader (length: 1032 49153 > 4000) Payload (size=1024)
- 1.496 /NodeList/0/DeviceList/0/$ns3::PointToPointNetDevice/TxQueue/Dequeue ns3::PppHeader (Point-to-Point Protocol: IP (0x0021)) ns3::Ipv4Header (tos 0x0 DSCP Default ECN Not-ECT ttl 64 id 8 protocol 17 offset (bytes) 0 flags [none] length: 1052 10.0.1.1 > 10.0.3.2) ns3::UdpHeader (length: 1032 49153 > 4000) Payload (size=1024)
r 1.50272 /NodeList/2/DeviceList/0/$ns3::PointToPointNetDevice/MacRx ns3::PppHeader (Point-to-Point Protocol: IP (0x0021)) ns3::Ipv4Header (tos 0x0 DSCP Default ECN Not-ECT ttl 63 id 7 protocol 17 offset (bytes) 0 flags [none] length: 1052 10.0.1.1 > 10.0.3.2) ns3::UdpHeader (length: 1032 49153 > 4000) Payload (size=1024)
+ 1.50272 /NodeList/2/DeviceList/1/$ns3::PointToPointNetDevice/TxQueue/Enqueue ns3::PppHeader (Point-to-Point Protocol: IP (0x0021)) ns3::Ipv4Header (tos 0x0 DSCP Default ECN Not-ECT ttl 62 id 7 protocol 17 offset (bytes) 0 flags [none] length: 1052 10.0.1.1 > 10.0.3.2) ns3::UdpHeader (length: 1032 49153 > 4000) Payload (size=1024)
- 1.50272 /NodeList/2/DeviceList/1/$ns3::PointToPointNetDevice/TxQueue/Dequeue ns3::PppHeader (Point-to-Point Protocol: IP (0x0021)) ns3::Ipv4Header (tos 0x0 DSCP Default ECN Not-ECT ttl 62 id 7 protocol 17 offset (bytes) 0 flags [none] length: 1052 10.0.1.1 > 10.0.3.2) ns3::UdpHeader (length: 1032 49153 > 4000) Payload (size=1024)
r 1.58232 /NodeList/1/DeviceList/0/$ns3::PointToPointNetDevice/MacRx ns3::PppHeader (Point-to-Point Protocol: IP (0x0021)) ns3::Ipv4Header (tos 0x0 DSCP Default ECN Not-ECT ttl 64 id 8 protocol 17 offset (bytes) 0 flags [none] length: 1052 10.0.1.1 > 10.0.3.2) ns3::UdpHeader (length: 1032 49153 > 4000) Payload (size=1024)
+ 1.58232 /NodeList/1/DeviceList/1/$ns3::PointToPointNetDevice/TxQueue/Enqueue ns3::PppHeader (Point-to-Point Protocol: IP (0x0021)) ns3::Ipv4Header (tos 0x0 DSCP Default ECN Not-ECT ttl 63 id 8 protocol 17 offset (bytes) 0 flags [none] length: 1052 10.0.1.1 > 10.0.3.2) ns3::UdpHeader (length: 1032 49153 > 4000) Payload (size=1024)
- 1.58232 /NodeList/1/DeviceList/1/$ns3::PointToPointNetDevice/TxQueue/Dequeue ns3::PppHeader (Point-to-Point Protocol: IP (0x0021)) ns3::Ipv4Header (tos 0x0 DSCP Default ECN Not-ECT ttl 63 id 8 protocol 17 offset (bytes) 0 flags [none] length: 1052 10.0.1.1 > 10.0.3.2) ns3::UdpHeader (length: 1032 49153 > 4000) Payload (size=1024)
r 1.58904 /NodeList/3/DeviceList/0/$ns3::PointToPointNetDevice/MacRx ns3::PppHeader (Point-to-Point Protocol: IP (0x0021)) ns3::Ipv4Header (tos 0x0 DSCP Default ECN Not-ECT ttl 62 id 7 protocol 17 offset (bytes) 0 flags [none] length: 1052 10.0.1.1 > 10.0.3.2) ns3::UdpHeader (length: 1032 49153 > 4000) Payload (size=1024)
+ 1.683 /NodeList/0/DeviceList/0/$ns3::PointToPointNetDevice/TxQueue/Enqueue ns3::PppHeader (Point-to-Point Protocol: IP (0x0021)) ns3::Ipv4Header (tos 0x0 DSCP Default ECN Not-ECT ttl 64 id 9 protocol 17 offset (bytes) 0 flags [none] length: 1052 10.0.1.1 > 10.0.3.2) ns3::UdpHeader (length: 1032 49153 > 4000) Payload (size=1024)
- 1.683 /NodeList/0/DeviceList/0/$ns3::PointToPointNetDevice/TxQueue/Dequeue ns3::PppHeader (Point-to-Point Protocol: IP (0x0021)) ns3::Ipv4Header (tos 0x0 DSCP Default ECN Not-ECT ttl 64 id 9 protocol 17 offset (bytes) 0 flags [none] length: 1052 10.0.1.1 > 10.0.3.2) ns3::UdpHeader (length: 1032 49153 > 4000) Payload (size=1024)
r 1.68972 /NodeList/2/DeviceList/0/$ns3::PointToPointNetDevice/MacRx ns3::PppHeader (Point-to-Point Protocol: IP (0x0021)) ns3::Ipv4Header (tos 0x0 DSCP Default ECN Not-ECT ttl 63 id 8 protocol 17 offset (bytes) 0 flags [none] length: 1052 10.0.1.1 > 10.0.3.2) ns3::UdpHeader (length: 1032 49153 > 4000) Payload (size=1024)
+ 1.68972 /NodeList/2/DeviceList/1/$ns3::PointToPointNetDevice/TxQueue/Enqueue ns3::PppHeader (Point-to-Point Protocol: IP (0x0021)) ns3::Ipv4Header (tos 0x0 DSCP Default ECN Not-ECT ttl 62 id 8 protocol 17 offset (bytes) 0 flags [none] length: 1052 10.0.1.1 > 10.0.3.2) ns3::UdpHeader (length: 1032 49153 > 4000) Payload (size=1024)
- 1.68972 /NodeList/2/DeviceList/1/$ns3::PointToPointNetDevice/TxQueue/Dequeue ns3::PppHeader (Point-to-Point Protocol: IP (0x0021)) ns3::Ipv4Header (tos 0x0 DSCP Default ECN Not-ECT ttl 62 id 8 protocol 17 offset (bytes) 0 flags [none] length: 1052 10.0.1.1 > 10.0.3.2) ns3::UdpHeader (length: 1032 49153 > 4000) Payload (size=1024)
r 1.76932 /NodeList/1/DeviceList/0/$ns3::PointToPointNetDevice/MacRx ns3::PppHeader (Point-to-Point Protocol: IP (0x0021)) ns3::Ipv4Header (tos 0x0 DSCP Default ECN Not-ECT ttl 64 id 9 protocol 17 offset (bytes) 0 flags [none] length: 1052 10.0.1.1 > 10.0.3.2) ns3::UdpHeader (length: 1032 49153 > 4000) Payload (size=1024)
+ 1.76932 /NodeList/1/DeviceList/1/$ns3::PointToPointNetDevice/TxQueue/Enqueue ns3::PppHeader (Point-to-Point Protocol: IP (0x0021)) ns3::Ipv4Header (tos 0x0 DSCP Default ECN Not-ECT ttl 63 id 9 protocol 17 offset (bytes) 0 flags [none] length: 1052 10.0.1.1 > 10.0.3.2) ns3::UdpHeader (length: 1032 49153 > 4000) Payload (size=1024)
- 1.76932 /NodeList/1/DeviceList/1/$ns3::PointToPointNetDevice/TxQueue/Dequeue ns3::PppHeader (Point-to-Point Protocol: IP (0x0021)) ns3::Ipv4Header (tos 0x0 DSCP Default ECN Not-ECT ttl 63 id 9 protocol 17 offset (bytes) 0 flags [none] length: 1052 10.0.1.1 > 10.0.3.2) ns3::UdpHeader (length: 1032 49153 > 4000) Payload (size=1024)
r 1.77604 /NodeList/3/DeviceList/0/$ns3::PointToPointNetDevice/MacRx ns3::PppHeader (Point-to-Point Protocol: IP (0x0021)) ns3::Ipv4Header (tos 0x0 DSCP Default ECN Not-ECT ttl 62 id 8 protocol 17 offset (bytes) 0 flags [none] length: 1052 10.0.1.1 > 10.0.3.2) ns3::UdpHeader (length: 1032 49153 > 4000) Payload (size=1024)
+ 1.87 /NodeList/0/DeviceList/0/$ns3::PointToPointNetDevice/TxQueue/Enqueue ns3::PppHeader (Point-to-Point Protocol: IP (0x0021)) ns3::Ipv4Header (tos 0x0 DSCP Default ECN Not-ECT ttl 64 id 10 protocol 17 offset (bytes) 0 flags [none] length: 1052 10.0.1.1 > 10.0.3.2) ns3::UdpHeader (length: 1032 49153 > 4000) Payload (size=1024)
- 1.87 /NodeList/0/DeviceList/0/$ns3::PointToPointNetDevice/TxQueue/Dequeue ns3::PppHeader (Point-to-Point Protocol: IP (0x0021)) ns3::Ipv4Header (tos 0x0 DSCP Default ECN Not-ECT ttl 64 id 10 protocol 17 offset (bytes) 0 flags [none] length: 1052 10.0.1.1 > 10.0.3.2) ns3::UdpHeader (length: 1032 49153 > 4000) Payload (size=1024)
r 1.87672 /NodeList/2/DeviceList/0/$ns3::PointToPointNetDevice/MacRx ns3::PppHeader (Point-to-Point Protocol: IP (0x0021)) ns3::Ipv4Header (tos 0x0 DSCP Default ECN Not-ECT ttl 63 id 9 protocol 17 offset (bytes) 0 flags [none] length: 1052 10.0.1.1 > 10.0.3.2) ns3::UdpHeader (length: 1032 49153 > 4000) Payload (size=1024)
+ 1.87672 /NodeList/2/DeviceList/1/$ns3::PointToPointNetDevice/TxQueue/Enqueue ns3::PppHeader (Point-to-Point Protocol: IP (0x0021)) ns3::Ipv4Header (tos 0x0 DSCP Default ECN Not-ECT ttl 62 id 9 protocol 17 offset (bytes) 0 flags [none] length: 1052 10.0.1.1 > 10.0.3.2) ns3::UdpHeader (length: 1032 49153 > 4000) Payload (size=1024)